
Host: robert-ThinkPad-E475

Timers On : Mon Jun 15 23:22:01 2020
Timers Off: Mon Jun 15 23:24:58 2020

Wall Time:      176.85 seconds

                                                       Time (seconds)
Module                                       User      System        Wall        Calls

--------------------------------------------------------------------------------------

**************************************************************************************

Host: robert-ThinkPad-E475

Timers On : Mon Jun 15 23:25:14 2020
Timers Off: Mon Jun 15 23:41:02 2020

Wall Time:      947.57 seconds

                                                       Time (seconds)
Module                                       User      System        Wall        Calls

--------------------------------------------------------------------------------------

**************************************************************************************

Host: robert-ThinkPad-E475

Timers On : Mon Jun 15 23:41:12 2020
Timers Off: Mon Jun 15 23:41:30 2020

Wall Time:       18.64 seconds

                                                       Time (seconds)
Module                                       User      System        Wall        Calls

--------------------------------------------------------------------------------------

**************************************************************************************

Host: robert-ThinkPad-E475

Timers On : Tue Jun 16 00:04:12 2020
Timers Off: Tue Jun 16 00:14:13 2020

Wall Time:      600.63 seconds

                                                       Time (seconds)
Module                                       User      System        Wall        Calls
DFH: sparsity prep                  :      1.133u      0.033s      0.644w     35 calls
DFH: initialize()                   :      4.283u      0.050s      2.634w     35 calls
DFH: AO Construction                :      0.217u      0.000s      0.117w     35 calls
DFH: AO-Met. Contraction            :      0.033u      0.000s      0.021w     35 calls
HF: Form core H                     :      0.033u      0.017s      0.048w     35 calls
HF: Form S/X                        :      0.000u      0.000s      0.009w     35 calls
HF: Guess                           :     10.067u      0.233s      6.168w     35 calls
SAD Guess                           :      9.517u      0.133s      5.796w     35 calls
HF: Form G                          :      0.233u      0.000s      0.115w    350 calls
JK: D                               :      0.017u      0.000s      0.007w    350 calls
JK: USO2AO                          :      0.050u      0.000s      0.014w    350 calls
JK: JK                              :      0.133u      0.000s      0.070w    350 calls
DFH: compute_JK()                   :      0.133u      0.000s      0.067w    350 calls
DFH: Grabbing AOs                   :      0.000u      0.000s      0.001w    350 calls
DFH: compute_J                      :      0.017u      0.000s      0.013w    350 calls
DFH: compute_K                      :      0.033u      0.000s      0.033w    350 calls
JK: AO2USO                          :      0.000u      0.000s      0.004w    350 calls
HF: Form F                          :      0.017u      0.000s      0.007w    350 calls
HF: Form D                          :      0.000u      0.000s      0.004w    350 calls
HF: DIIS                            :      0.633u      0.033s      0.376w    315 calls
DIISManager::add_entry              :      0.033u      0.017s      0.041w    315 calls
DIISManager::extrapolate            :      0.167u      0.000s      0.055w    315 calls
bMatrix setup                       :      0.050u      0.000s      0.015w    315 calls
bMatrix pseudoinverse               :      0.050u      0.000s      0.027w    315 calls
New vector                          :      0.067u      0.000s      0.008w    315 calls
HF: Form C                          :      0.000u      0.000s      0.022w    315 calls
CIWave: CIvect write                :      0.000u      0.000s      0.001w     22 calls
CIWave: CIvect read                 :      0.000u      0.000s      0.001w     71 calls
CIWave: s2                          :      0.000u      0.000s      0.001w      6 calls
CIWave: s3                          :      0.000u      0.000s      0.003w     12 calls
ccenergy                            :      0.350u      0.617s      0.600w      1 calls
F build                             :      0.017u      0.017s      0.015w     20 calls
Wmbej build                         :      0.000u      0.017s      0.016w     20 calls
C->Wmbej                            :      0.000u      0.017s      0.001w     20 calls
F->Wmbej                            :      0.000u      0.000s      0.005w     20 calls
E->Wmbej                            :      0.000u      0.000s      0.003w     20 calls
X->Wmbej                            :      0.000u      0.000s      0.005w     20 calls
Z                                   :      0.000u      0.000s      0.001w     20 calls
T2 Build                            :      0.050u      0.033s      0.029w     20 calls
BT2                                 :      0.000u      0.000s      0.005w     20 calls
ABCD:new                            :      0.000u      0.000s      0.005w     20 calls
ABCD:S                              :      0.000u      0.000s      0.001w     20 calls
ABCD:A                              :      0.000u      0.000s      0.001w     20 calls
ABCD:axpy                           :      0.000u      0.000s      0.001w     20 calls
FT2                                 :      0.000u      0.000s      0.002w     20 calls
WmbejT2                             :      0.033u      0.000s      0.005w     20 calls
CT2                                 :      0.000u      0.017s      0.010w     20 calls

--------------------------------------------------------------------------------------
DFH: sparsity prep                  :      1.133u      0.033s      0.644w     35 calls
DFH: initialize()                   :      4.283u      0.050s      2.634w     35 calls
| DFH: AO Construction              :      0.217u      0.000s      0.117w     35 calls
| DFH: AO-Met. Contraction          :      0.033u      0.000s      0.021w     35 calls
HF: Form core H                     :      0.033u      0.017s      0.048w     35 calls
HF: Form S/X                        :      0.000u      0.000s      0.009w     35 calls
HF: Guess                           :     10.067u      0.233s      6.168w     35 calls
| SAD Guess                         :      9.517u      0.133s      5.796w     35 calls
HF: Form G                          :      0.233u      0.000s      0.115w    350 calls
| JK: D                             :      0.017u      0.000s      0.007w    350 calls
| JK: USO2AO                        :      0.050u      0.000s      0.014w    350 calls
| JK: JK                            :      0.133u      0.000s      0.070w    350 calls
| | DFH: compute_JK()               :      0.133u      0.000s      0.067w    350 calls
| | | DFH: Grabbing AOs             :      0.000u      0.000s      0.001w    350 calls
| | | DFH: compute_J                :      0.017u      0.000s      0.013w    350 calls
| | | DFH: compute_K                :      0.033u      0.000s      0.033w    350 calls
| JK: AO2USO                        :      0.000u      0.000s      0.004w    350 calls
HF: Form F                          :      0.017u      0.000s      0.007w    350 calls
HF: Form D                          :      0.000u      0.000s      0.004w    350 calls
HF: DIIS                            :      0.633u      0.033s      0.376w    315 calls
| DIISManager::add_entry            :      0.033u      0.017s      0.041w    315 calls
| DIISManager::extrapolate          :      0.167u      0.000s      0.055w    315 calls
| | bMatrix setup                   :      0.050u      0.000s      0.015w    315 calls
| | bMatrix pseudoinverse           :      0.050u      0.000s      0.027w    315 calls
| | New vector                      :      0.067u      0.000s      0.008w    315 calls
HF: Form C                          :      0.000u      0.000s      0.022w    315 calls
CIWave: CIvect write                :      0.000u      0.000s      0.001w     22 calls
CIWave: CIvect read                 :      0.000u      0.000s      0.001w     71 calls
CIWave: s2                          :      0.000u      0.000s      0.001w      6 calls
CIWave: s3                          :      0.000u      0.000s      0.003w     12 calls
ccenergy                            :      0.350u      0.617s      0.600w      1 calls
| F build                           :      0.017u      0.017s      0.015w     20 calls
| Wmbej build                       :      0.000u      0.017s      0.016w     20 calls
| | C->Wmbej                        :      0.000u      0.017s      0.001w     20 calls
| | F->Wmbej                        :      0.000u      0.000s      0.005w     20 calls
| | E->Wmbej                        :      0.000u      0.000s      0.003w     20 calls
| | X->Wmbej                        :      0.000u      0.000s      0.005w     20 calls
| Z                                 :      0.000u      0.000s      0.001w     20 calls
| T2 Build                          :      0.050u      0.033s      0.029w     20 calls
| | BT2                             :      0.000u      0.000s      0.005w     20 calls
| | | ABCD:new                      :      0.000u      0.000s      0.005w     20 calls
| | | | ABCD:S                      :      0.000u      0.000s      0.001w     20 calls
| | | | ABCD:A                      :      0.000u      0.000s      0.001w     20 calls
| | | | ABCD:axpy                   :      0.000u      0.000s      0.001w     20 calls
| | FT2                             :      0.000u      0.000s      0.002w     20 calls
| | WmbejT2                         :      0.033u      0.000s      0.005w     20 calls
| | CT2                             :      0.000u      0.017s      0.010w     20 calls

**************************************************************************************

Host: robert-ThinkPad-E475

Timers On : Tue Jun 16 00:16:34 2020
Timers Off: Tue Jun 16 00:24:46 2020

Wall Time:      491.73 seconds

                                                       Time (seconds)
Module                                       User      System        Wall        Calls
DFH: sparsity prep                  :      1.050u      0.000s      0.641w     36 calls
DFH: initialize()                   :      4.300u      0.033s      2.567w     36 calls
DFH: AO Construction                :      0.267u      0.000s      0.112w     36 calls
DFH: AO-Met. Contraction            :      0.067u      0.000s      0.020w     36 calls
HF: Form core H                     :      0.017u      0.033s      0.046w     36 calls
HF: Form S/X                        :      0.017u      0.000s      0.009w     36 calls
HF: Guess                           :     10.100u      0.117s      6.163w     36 calls
SAD Guess                           :      9.567u      0.050s      5.778w     36 calls
HF: Form G                          :      0.133u      0.017s      0.095w    288 calls
JK: D                               :      0.000u      0.000s      0.006w    288 calls
JK: USO2AO                          :      0.000u      0.000s      0.011w    288 calls
JK: JK                              :      0.067u      0.017s      0.058w    288 calls
DFH: compute_JK()                   :      0.067u      0.017s      0.055w    288 calls
DFH: Grabbing AOs                   :      0.000u      0.000s      0.001w    288 calls
DFH: compute_J                      :      0.033u      0.017s      0.012w    288 calls
DFH: compute_K                      :      0.017u      0.000s      0.027w    288 calls
JK: AO2USO                          :      0.000u      0.000s      0.003w    288 calls
HF: Form F                          :      0.000u      0.000s      0.006w    288 calls
HF: Form D                          :      0.000u      0.000s      0.003w    288 calls
HF: DIIS                            :      0.417u      0.017s      0.289w    252 calls
DIISManager::add_entry              :      0.083u      0.017s      0.036w    252 calls
DIISManager::extrapolate            :      0.033u      0.000s      0.040w    252 calls
bMatrix setup                       :      0.000u      0.000s      0.009w    252 calls
bMatrix pseudoinverse               :      0.033u      0.000s      0.021w    252 calls
New vector                          :      0.000u      0.000s      0.006w    252 calls
HF: Form C                          :      0.033u      0.000s      0.017w    252 calls
CIWave: CIvect write                :      0.000u      0.000s      0.018w    736 calls
CIWave: CIvect read                 :      0.033u      0.000s      0.021w   2573 calls
CIWave: s2                          :      0.000u      0.017s      0.015w    198 calls
CIWave: s3                          :      0.117u      0.000s      0.051w    396 calls
ccenergy                            :      1.633u      3.300s      3.061w      9 calls
F build                             :      0.083u      0.033s      0.071w    110 calls
Wmbej build                         :      0.117u      0.000s      0.079w    110 calls
C->Wmbej                            :      0.000u      0.000s      0.007w    110 calls
F->Wmbej                            :      0.033u      0.000s      0.025w    110 calls
E->Wmbej                            :      0.083u      0.000s      0.014w    110 calls
X->Wmbej                            :      0.000u      0.000s      0.027w    110 calls
Z                                   :      0.017u      0.000s      0.007w    110 calls
T2 Build                            :      0.100u      0.083s      0.165w    110 calls
BT2                                 :      0.017u      0.017s      0.030w    110 calls
ABCD:new                            :      0.017u      0.017s      0.029w    110 calls
ABCD:S                              :      0.000u      0.000s      0.004w    110 calls
ABCD:A                              :      0.000u      0.000s      0.004w    110 calls
ABCD:axpy                           :      0.017u      0.017s      0.007w    110 calls
FT2                                 :      0.017u      0.017s      0.009w    110 calls
WmbejT2                             :      0.017u      0.000s      0.027w    110 calls
CT2                                 :      0.033u      0.033s      0.059w    110 calls

--------------------------------------------------------------------------------------
DFH: sparsity prep                  :      1.050u      0.000s      0.641w     36 calls
DFH: initialize()                   :      4.300u      0.033s      2.567w     36 calls
| DFH: AO Construction              :      0.267u      0.000s      0.112w     36 calls
| DFH: AO-Met. Contraction          :      0.067u      0.000s      0.020w     36 calls
HF: Form core H                     :      0.017u      0.033s      0.046w     36 calls
HF: Form S/X                        :      0.017u      0.000s      0.009w     36 calls
HF: Guess                           :     10.100u      0.117s      6.163w     36 calls
| SAD Guess                         :      9.567u      0.050s      5.778w     36 calls
HF: Form G                          :      0.133u      0.017s      0.095w    288 calls
| JK: D                             :      0.000u      0.000s      0.006w    288 calls
| JK: USO2AO                        :      0.000u      0.000s      0.011w    288 calls
| JK: JK                            :      0.067u      0.017s      0.058w    288 calls
| | DFH: compute_JK()               :      0.067u      0.017s      0.055w    288 calls
| | | DFH: Grabbing AOs             :      0.000u      0.000s      0.001w    288 calls
| | | DFH: compute_J                :      0.033u      0.017s      0.012w    288 calls
| | | DFH: compute_K                :      0.017u      0.000s      0.027w    288 calls
| JK: AO2USO                        :      0.000u      0.000s      0.003w    288 calls
HF: Form F                          :      0.000u      0.000s      0.006w    288 calls
HF: Form D                          :      0.000u      0.000s      0.003w    288 calls
HF: DIIS                            :      0.417u      0.017s      0.289w    252 calls
| DIISManager::add_entry            :      0.083u      0.017s      0.036w    252 calls
| DIISManager::extrapolate          :      0.033u      0.000s      0.040w    252 calls
| | bMatrix setup                   :      0.000u      0.000s      0.009w    252 calls
| | bMatrix pseudoinverse           :      0.033u      0.000s      0.021w    252 calls
| | New vector                      :      0.000u      0.000s      0.006w    252 calls
HF: Form C                          :      0.033u      0.000s      0.017w    252 calls
CIWave: CIvect write                :      0.000u      0.000s      0.018w    736 calls
CIWave: CIvect read                 :      0.033u      0.000s      0.021w   2573 calls
CIWave: s2                          :      0.000u      0.017s      0.015w    198 calls
CIWave: s3                          :      0.117u      0.000s      0.051w    396 calls
ccenergy                            :      1.633u      3.300s      3.061w      9 calls
| F build                           :      0.083u      0.033s      0.071w    110 calls
| Wmbej build                       :      0.117u      0.000s      0.079w    110 calls
| | C->Wmbej                        :      0.000u      0.000s      0.007w    110 calls
| | F->Wmbej                        :      0.033u      0.000s      0.025w    110 calls
| | E->Wmbej                        :      0.083u      0.000s      0.014w    110 calls
| | X->Wmbej                        :      0.000u      0.000s      0.027w    110 calls
| Z                                 :      0.017u      0.000s      0.007w    110 calls
| T2 Build                          :      0.100u      0.083s      0.165w    110 calls
| | BT2                             :      0.017u      0.017s      0.030w    110 calls
| | | ABCD:new                      :      0.017u      0.017s      0.029w    110 calls
| | | | ABCD:S                      :      0.000u      0.000s      0.004w    110 calls
| | | | ABCD:A                      :      0.000u      0.000s      0.004w    110 calls
| | | | ABCD:axpy                   :      0.017u      0.017s      0.007w    110 calls
| | FT2                             :      0.017u      0.017s      0.009w    110 calls
| | WmbejT2                         :      0.017u      0.000s      0.027w    110 calls
| | CT2                             :      0.033u      0.033s      0.059w    110 calls

**************************************************************************************

Host: robert-ThinkPad-E475

Timers On : Tue Jun 16 00:24:56 2020
Timers Off: Tue Jun 16 00:28:34 2020

Wall Time:      217.88 seconds

                                                       Time (seconds)
Module                                       User      System        Wall        Calls
DFH: sparsity prep                  :      0.333u      0.000s      0.225w     13 calls
DFH: initialize()                   :      1.517u      0.050s      0.944w     13 calls
DFH: AO Construction                :      0.083u      0.000s      0.038w     13 calls
DFH: AO-Met. Contraction            :      0.000u      0.000s      0.007w     13 calls
HF: Form core H                     :      0.000u      0.017s      0.016w     13 calls
HF: Form S/X                        :      0.000u      0.000s      0.003w     13 calls
HF: Guess                           :      3.600u      0.067s      2.188w     13 calls
SAD Guess                           :      3.367u      0.033s      2.045w     13 calls
HF: Form G                          :      0.100u      0.000s      0.064w    228 calls
JK: D                               :      0.000u      0.000s      0.003w    228 calls
JK: USO2AO                          :      0.000u      0.000s      0.008w    228 calls
JK: JK                              :      0.100u      0.000s      0.040w    228 calls
DFH: compute_JK()                   :      0.083u      0.000s      0.038w    228 calls
DFH: Grabbing AOs                   :      0.000u      0.000s      0.001w    228 calls
DFH: compute_J                      :      0.017u      0.000s      0.008w    228 calls
DFH: compute_K                      :      0.017u      0.000s      0.020w    228 calls
JK: AO2USO                          :      0.000u      0.000s      0.002w    228 calls
HF: Form F                          :      0.000u      0.000s      0.004w    228 calls
HF: Form D                          :      0.000u      0.000s      0.002w    228 calls
HF: DIIS                            :      0.317u      0.000s      0.212w    215 calls
DIISManager::add_entry              :      0.017u      0.000s      0.019w    215 calls
DIISManager::extrapolate            :      0.067u      0.000s      0.041w    215 calls
bMatrix setup                       :      0.017u      0.000s      0.011w    215 calls
bMatrix pseudoinverse               :      0.017u      0.000s      0.021w    215 calls
New vector                          :      0.033u      0.000s      0.006w    215 calls
HF: Form C                          :      0.033u      0.000s      0.013w    215 calls

--------------------------------------------------------------------------------------
DFH: sparsity prep                  :      0.333u      0.000s      0.225w     13 calls
DFH: initialize()                   :      1.517u      0.050s      0.944w     13 calls
| DFH: AO Construction              :      0.083u      0.000s      0.038w     13 calls
| DFH: AO-Met. Contraction          :      0.000u      0.000s      0.007w     13 calls
HF: Form core H                     :      0.000u      0.017s      0.016w     13 calls
HF: Form S/X                        :      0.000u      0.000s      0.003w     13 calls
HF: Guess                           :      3.600u      0.067s      2.188w     13 calls
| SAD Guess                         :      3.367u      0.033s      2.045w     13 calls
HF: Form G                          :      0.100u      0.000s      0.064w    228 calls
| JK: D                             :      0.000u      0.000s      0.003w    228 calls
| JK: USO2AO                        :      0.000u      0.000s      0.008w    228 calls
| JK: JK                            :      0.100u      0.000s      0.040w    228 calls
| | DFH: compute_JK()               :      0.083u      0.000s      0.038w    228 calls
| | | DFH: Grabbing AOs             :      0.000u      0.000s      0.001w    228 calls
| | | DFH: compute_J                :      0.017u      0.000s      0.008w    228 calls
| | | DFH: compute_K                :      0.017u      0.000s      0.020w    228 calls
| JK: AO2USO                        :      0.000u      0.000s      0.002w    228 calls
HF: Form F                          :      0.000u      0.000s      0.004w    228 calls
HF: Form D                          :      0.000u      0.000s      0.002w    228 calls
HF: DIIS                            :      0.317u      0.000s      0.212w    215 calls
| DIISManager::add_entry            :      0.017u      0.000s      0.019w    215 calls
| DIISManager::extrapolate          :      0.067u      0.000s      0.041w    215 calls
| | bMatrix setup                   :      0.017u      0.000s      0.011w    215 calls
| | bMatrix pseudoinverse           :      0.017u      0.000s      0.021w    215 calls
| | New vector                      :      0.033u      0.000s      0.006w    215 calls
HF: Form C                          :      0.033u      0.000s      0.013w    215 calls

**************************************************************************************

Host: robert-ThinkPad-E475

Timers On : Tue Jun 16 00:28:56 2020
Timers Off: Tue Jun 16 00:31:05 2020

Wall Time:      128.96 seconds

                                                       Time (seconds)
Module                                       User      System        Wall        Calls
DFH: sparsity prep                  :      0.050u      0.000s      0.035w      2 calls
DFH: initialize()                   :      0.217u      0.000s      0.139w      2 calls
DFH: AO Construction                :      0.000u      0.000s      0.006w      2 calls
DFH: AO-Met. Contraction            :      0.000u      0.000s      0.001w      2 calls
HF: Form core H                     :      0.033u      0.000s      0.003w      2 calls
HF: Form S/X                        :      0.000u      0.000s      0.000w      2 calls
HF: Guess                           :      0.533u      0.000s      0.335w      2 calls
SAD Guess                           :      0.517u      0.000s      0.314w      2 calls
HF: Form G                          :      0.000u      0.017s      0.004w     12 calls
JK: D                               :      0.000u      0.000s      0.000w     12 calls
JK: USO2AO                          :      0.000u      0.000s      0.000w     12 calls
JK: JK                              :      0.000u      0.017s      0.003w     12 calls
DFH: compute_JK()                   :      0.000u      0.017s      0.002w     12 calls
DFH: Grabbing AOs                   :      0.000u      0.000s      0.000w     12 calls
DFH: compute_J                      :      0.000u      0.017s      0.001w     12 calls
DFH: compute_K                      :      0.000u      0.000s      0.001w     12 calls
JK: AO2USO                          :      0.000u      0.000s      0.000w     12 calls
HF: Form F                          :      0.000u      0.000s      0.000w     12 calls
HF: Form D                          :      0.000u      0.000s      0.000w     12 calls
HF: DIIS                            :      0.017u      0.000s      0.012w     10 calls
DIISManager::add_entry              :      0.000u      0.000s      0.002w     10 calls
DIISManager::extrapolate            :      0.000u      0.000s      0.002w     10 calls
bMatrix setup                       :      0.000u      0.000s      0.000w     10 calls
bMatrix pseudoinverse               :      0.000u      0.000s      0.001w     10 calls
New vector                          :      0.000u      0.000s      0.000w     10 calls
HF: Form C                          :      0.000u      0.000s      0.001w     10 calls

--------------------------------------------------------------------------------------
DFH: sparsity prep                  :      0.050u      0.000s      0.035w      2 calls
DFH: initialize()                   :      0.217u      0.000s      0.139w      2 calls
| DFH: AO Construction              :      0.000u      0.000s      0.006w      2 calls
| DFH: AO-Met. Contraction          :      0.000u      0.000s      0.001w      2 calls
HF: Form core H                     :      0.033u      0.000s      0.003w      2 calls
HF: Form S/X                        :      0.000u      0.000s      0.000w      2 calls
HF: Guess                           :      0.533u      0.000s      0.335w      2 calls
| SAD Guess                         :      0.517u      0.000s      0.314w      2 calls
HF: Form G                          :      0.000u      0.017s      0.004w     12 calls
| JK: D                             :      0.000u      0.000s      0.000w     12 calls
| JK: USO2AO                        :      0.000u      0.000s      0.000w     12 calls
| JK: JK                            :      0.000u      0.017s      0.003w     12 calls
| | DFH: compute_JK()               :      0.000u      0.017s      0.002w     12 calls
| | | DFH: Grabbing AOs             :      0.000u      0.000s      0.000w     12 calls
| | | DFH: compute_J                :      0.000u      0.017s      0.001w     12 calls
| | | DFH: compute_K                :      0.000u      0.000s      0.001w     12 calls
| JK: AO2USO                        :      0.000u      0.000s      0.000w     12 calls
HF: Form F                          :      0.000u      0.000s      0.000w     12 calls
HF: Form D                          :      0.000u      0.000s      0.000w     12 calls
HF: DIIS                            :      0.017u      0.000s      0.012w     10 calls
| DIISManager::add_entry            :      0.000u      0.000s      0.002w     10 calls
| DIISManager::extrapolate          :      0.000u      0.000s      0.002w     10 calls
| | bMatrix setup                   :      0.000u      0.000s      0.000w     10 calls
| | bMatrix pseudoinverse           :      0.000u      0.000s      0.001w     10 calls
| | New vector                      :      0.000u      0.000s      0.000w     10 calls
HF: Form C                          :      0.000u      0.000s      0.001w     10 calls

**************************************************************************************

Host: robert-ThinkPad-E475

Timers On : Tue Jun 16 00:31:15 2020
Timers Off: Tue Jun 16 00:37:56 2020

Wall Time:      400.65 seconds

                                                       Time (seconds)
Module                                       User      System        Wall        Calls
DFH: sparsity prep                  :      0.017u      0.000s      0.015w      1 calls
DFH: initialize()                   :      0.100u      0.000s      0.069w      1 calls
DFH: AO Construction                :      0.000u      0.000s      0.003w      1 calls
DFH: AO-Met. Contraction            :      0.000u      0.000s      0.000w      1 calls
HF: Form core H                     :      0.017u      0.000s      0.001w      1 calls
HF: Form S/X                        :      0.000u      0.000s      0.000w      1 calls
HF: Guess                           :      0.283u      0.000s      0.174w      1 calls
SAD Guess                           :      0.267u      0.000s      0.165w      1 calls
HF: Form G                          :      0.000u      0.000s      0.002w      6 calls
JK: D                               :      0.000u      0.000s      0.000w      6 calls
JK: USO2AO                          :      0.000u      0.000s      0.000w      6 calls
JK: JK                              :      0.000u      0.000s      0.001w      6 calls
DFH: compute_JK()                   :      0.000u      0.000s      0.001w      6 calls
DFH: Grabbing AOs                   :      0.000u      0.000s      0.000w      6 calls
DFH: compute_J                      :      0.000u      0.000s      0.000w      6 calls
DFH: compute_K                      :      0.000u      0.000s      0.001w      6 calls
JK: AO2USO                          :      0.000u      0.000s      0.000w      6 calls
HF: Form F                          :      0.000u      0.000s      0.000w      6 calls
HF: Form D                          :      0.000u      0.000s      0.000w      6 calls
HF: DIIS                            :      0.000u      0.000s      0.006w      5 calls
DIISManager::add_entry              :      0.000u      0.000s      0.001w      5 calls
DIISManager::extrapolate            :      0.000u      0.000s      0.001w      5 calls
bMatrix setup                       :      0.000u      0.000s      0.000w      5 calls
bMatrix pseudoinverse               :      0.000u      0.000s      0.000w      5 calls
New vector                          :      0.000u      0.000s      0.000w      5 calls
HF: Form C                          :      0.000u      0.000s      0.000w      5 calls

--------------------------------------------------------------------------------------
DFH: sparsity prep                  :      0.017u      0.000s      0.015w      1 calls
DFH: initialize()                   :      0.100u      0.000s      0.069w      1 calls
| DFH: AO Construction              :      0.000u      0.000s      0.003w      1 calls
| DFH: AO-Met. Contraction          :      0.000u      0.000s      0.000w      1 calls
HF: Form core H                     :      0.017u      0.000s      0.001w      1 calls
HF: Form S/X                        :      0.000u      0.000s      0.000w      1 calls
HF: Guess                           :      0.283u      0.000s      0.174w      1 calls
| SAD Guess                         :      0.267u      0.000s      0.165w      1 calls
HF: Form G                          :      0.000u      0.000s      0.002w      6 calls
| JK: D                             :      0.000u      0.000s      0.000w      6 calls
| JK: USO2AO                        :      0.000u      0.000s      0.000w      6 calls
| JK: JK                            :      0.000u      0.000s      0.001w      6 calls
| | DFH: compute_JK()               :      0.000u      0.000s      0.001w      6 calls
| | | DFH: Grabbing AOs             :      0.000u      0.000s      0.000w      6 calls
| | | DFH: compute_J                :      0.000u      0.000s      0.000w      6 calls
| | | DFH: compute_K                :      0.000u      0.000s      0.001w      6 calls
| JK: AO2USO                        :      0.000u      0.000s      0.000w      6 calls
HF: Form F                          :      0.000u      0.000s      0.000w      6 calls
HF: Form D                          :      0.000u      0.000s      0.000w      6 calls
HF: DIIS                            :      0.000u      0.000s      0.006w      5 calls
| DIISManager::add_entry            :      0.000u      0.000s      0.001w      5 calls
| DIISManager::extrapolate          :      0.000u      0.000s      0.001w      5 calls
| | bMatrix setup                   :      0.000u      0.000s      0.000w      5 calls
| | bMatrix pseudoinverse           :      0.000u      0.000s      0.000w      5 calls
| | New vector                      :      0.000u      0.000s      0.000w      5 calls
HF: Form C                          :      0.000u      0.000s      0.000w      5 calls

**************************************************************************************

Host: robert-ThinkPad-E475

Timers On : Tue Jun 16 00:38:07 2020
Timers Off: Tue Jun 16 00:40:59 2020

Wall Time:      172.39 seconds

                                                       Time (seconds)
Module                                       User      System        Wall        Calls
DFH: sparsity prep                  :      0.033u      0.000s      0.018w      1 calls
DFH: initialize()                   :      0.133u      0.000s      0.072w      1 calls
DFH: AO Construction                :      0.017u      0.000s      0.003w      1 calls
DFH: AO-Met. Contraction            :      0.000u      0.000s      0.001w      1 calls
HF: Form core H                     :      0.000u      0.000s      0.002w      1 calls
HF: Form S/X                        :      0.000u      0.000s      0.000w      1 calls
HF: Guess                           :      0.283u      0.000s      0.177w      1 calls
SAD Guess                           :      0.267u      0.000s      0.164w      1 calls
HF: Form G                          :      0.017u      0.000s      0.002w      6 calls
JK: D                               :      0.000u      0.000s      0.000w      6 calls
JK: USO2AO                          :      0.000u      0.000s      0.000w      6 calls
JK: JK                              :      0.000u      0.000s      0.001w      6 calls
DFH: compute_JK()                   :      0.000u      0.000s      0.001w      6 calls
DFH: Grabbing AOs                   :      0.000u      0.000s      0.000w      6 calls
DFH: compute_J                      :      0.000u      0.000s      0.000w      6 calls
DFH: compute_K                      :      0.000u      0.000s      0.001w      6 calls
JK: AO2USO                          :      0.000u      0.000s      0.000w      6 calls
HF: Form F                          :      0.000u      0.000s      0.000w      6 calls
HF: Form D                          :      0.000u      0.000s      0.000w      6 calls
HF: DIIS                            :      0.017u      0.000s      0.005w      5 calls
DIISManager::add_entry              :      0.000u      0.000s      0.001w      5 calls
DIISManager::extrapolate            :      0.000u      0.000s      0.001w      5 calls
bMatrix setup                       :      0.000u      0.000s      0.000w      5 calls
bMatrix pseudoinverse               :      0.000u      0.000s      0.000w      5 calls
New vector                          :      0.000u      0.000s      0.000w      5 calls
HF: Form C                          :      0.000u      0.000s      0.000w      5 calls

--------------------------------------------------------------------------------------
DFH: sparsity prep                  :      0.033u      0.000s      0.018w      1 calls
DFH: initialize()                   :      0.133u      0.000s      0.072w      1 calls
| DFH: AO Construction              :      0.017u      0.000s      0.003w      1 calls
| DFH: AO-Met. Contraction          :      0.000u      0.000s      0.001w      1 calls
HF: Form core H                     :      0.000u      0.000s      0.002w      1 calls
HF: Form S/X                        :      0.000u      0.000s      0.000w      1 calls
HF: Guess                           :      0.283u      0.000s      0.177w      1 calls
| SAD Guess                         :      0.267u      0.000s      0.164w      1 calls
HF: Form G                          :      0.017u      0.000s      0.002w      6 calls
| JK: D                             :      0.000u      0.000s      0.000w      6 calls
| JK: USO2AO                        :      0.000u      0.000s      0.000w      6 calls
| JK: JK                            :      0.000u      0.000s      0.001w      6 calls
| | DFH: compute_JK()               :      0.000u      0.000s      0.001w      6 calls
| | | DFH: Grabbing AOs             :      0.000u      0.000s      0.000w      6 calls
| | | DFH: compute_J                :      0.000u      0.000s      0.000w      6 calls
| | | DFH: compute_K                :      0.000u      0.000s      0.001w      6 calls
| JK: AO2USO                        :      0.000u      0.000s      0.000w      6 calls
HF: Form F                          :      0.000u      0.000s      0.000w      6 calls
HF: Form D                          :      0.000u      0.000s      0.000w      6 calls
HF: DIIS                            :      0.017u      0.000s      0.005w      5 calls
| DIISManager::add_entry            :      0.000u      0.000s      0.001w      5 calls
| DIISManager::extrapolate          :      0.000u      0.000s      0.001w      5 calls
| | bMatrix setup                   :      0.000u      0.000s      0.000w      5 calls
| | bMatrix pseudoinverse           :      0.000u      0.000s      0.000w      5 calls
| | New vector                      :      0.000u      0.000s      0.000w      5 calls
HF: Form C                          :      0.000u      0.000s      0.000w      5 calls

**************************************************************************************

Host: robert-ThinkPad-E475

Timers On : Tue Jun 16 00:48:09 2020
Timers Off: Tue Jun 16 00:48:36 2020

Wall Time:       27.35 seconds

                                                       Time (seconds)
Module                                       User      System        Wall        Calls
DFH: sparsity prep                  :      0.333u      0.000s      0.208w     12 calls
DFH: initialize()                   :      1.550u      0.017s      0.946w     12 calls
DFH: AO Construction                :      0.050u      0.000s      0.042w     12 calls
DFH: AO-Met. Contraction            :      0.000u      0.000s      0.007w     12 calls
HF: Form core H                     :      0.000u      0.000s      0.014w     12 calls
HF: Form S/X                        :      0.000u      0.000s      0.003w     12 calls
HF: Guess                           :      3.550u      0.033s      2.146w     12 calls
SAD Guess                           :      3.333u      0.017s      2.017w     12 calls
HF: Form G                          :      0.050u      0.000s      0.041w    127 calls
JK: D                               :      0.000u      0.000s      0.002w    127 calls
JK: USO2AO                          :      0.000u      0.000s      0.005w    127 calls
JK: JK                              :      0.050u      0.000s      0.025w    127 calls
DFH: compute_JK()                   :      0.050u      0.000s      0.024w    127 calls
DFH: Grabbing AOs                   :      0.000u      0.000s      0.000w    127 calls
DFH: compute_J                      :      0.000u      0.000s      0.005w    127 calls
DFH: compute_K                      :      0.017u      0.000s      0.012w    127 calls
JK: AO2USO                          :      0.000u      0.000s      0.002w    127 calls
HF: Form F                          :      0.000u      0.000s      0.002w    127 calls
HF: Form D                          :      0.000u      0.000s      0.001w    127 calls
HF: DIIS                            :      0.167u      0.017s      0.142w    115 calls
DIISManager::add_entry              :      0.033u      0.000s      0.015w    115 calls
DIISManager::extrapolate            :      0.000u      0.000s      0.022w    115 calls
bMatrix setup                       :      0.000u      0.000s      0.005w    115 calls
bMatrix pseudoinverse               :      0.000u      0.000s      0.011w    115 calls
New vector                          :      0.000u      0.000s      0.003w    115 calls
HF: Form C                          :      0.017u      0.000s      0.008w    115 calls
CIWave: CIvect write                :      0.000u      0.000s      0.002w     82 calls
CIWave: CIvect read                 :      0.000u      0.000s      0.002w    290 calls
CIWave: s2                          :      0.000u      0.000s      0.002w     22 calls
CIWave: s3                          :      0.017u      0.000s      0.006w     44 calls

--------------------------------------------------------------------------------------
DFH: sparsity prep                  :      0.333u      0.000s      0.208w     12 calls
DFH: initialize()                   :      1.550u      0.017s      0.946w     12 calls
| DFH: AO Construction              :      0.050u      0.000s      0.042w     12 calls
| DFH: AO-Met. Contraction          :      0.000u      0.000s      0.007w     12 calls
HF: Form core H                     :      0.000u      0.000s      0.014w     12 calls
HF: Form S/X                        :      0.000u      0.000s      0.003w     12 calls
HF: Guess                           :      3.550u      0.033s      2.146w     12 calls
| SAD Guess                         :      3.333u      0.017s      2.017w     12 calls
HF: Form G                          :      0.050u      0.000s      0.041w    127 calls
| JK: D                             :      0.000u      0.000s      0.002w    127 calls
| JK: USO2AO                        :      0.000u      0.000s      0.005w    127 calls
| JK: JK                            :      0.050u      0.000s      0.025w    127 calls
| | DFH: compute_JK()               :      0.050u      0.000s      0.024w    127 calls
| | | DFH: Grabbing AOs             :      0.000u      0.000s      0.000w    127 calls
| | | DFH: compute_J                :      0.000u      0.000s      0.005w    127 calls
| | | DFH: compute_K                :      0.017u      0.000s      0.012w    127 calls
| JK: AO2USO                        :      0.000u      0.000s      0.002w    127 calls
HF: Form F                          :      0.000u      0.000s      0.002w    127 calls
HF: Form D                          :      0.000u      0.000s      0.001w    127 calls
HF: DIIS                            :      0.167u      0.017s      0.142w    115 calls
| DIISManager::add_entry            :      0.033u      0.000s      0.015w    115 calls
| DIISManager::extrapolate          :      0.000u      0.000s      0.022w    115 calls
| | bMatrix setup                   :      0.000u      0.000s      0.005w    115 calls
| | bMatrix pseudoinverse           :      0.000u      0.000s      0.011w    115 calls
| | New vector                      :      0.000u      0.000s      0.003w    115 calls
HF: Form C                          :      0.017u      0.000s      0.008w    115 calls
CIWave: CIvect write                :      0.000u      0.000s      0.002w     82 calls
CIWave: CIvect read                 :      0.000u      0.000s      0.002w    290 calls
CIWave: s2                          :      0.000u      0.000s      0.002w     22 calls
CIWave: s3                          :      0.017u      0.000s      0.006w     44 calls

**************************************************************************************

Host: robert-ThinkPad-E475

Timers On : Tue Jun 16 00:48:47 2020
Timers Off: Tue Jun 16 00:49:49 2020

Wall Time:       61.35 seconds

                                                       Time (seconds)
Module                                       User      System        Wall        Calls
DFH: sparsity prep                  :      0.033u      0.000s      0.016w      1 calls
DFH: initialize()                   :      0.117u      0.017s      0.074w      1 calls
DFH: AO Construction                :      0.017u      0.000s      0.003w      1 calls
DFH: AO-Met. Contraction            :      0.000u      0.000s      0.001w      1 calls
HF: Form core H                     :      0.000u      0.000s      0.001w      1 calls
HF: Form S/X                        :      0.000u      0.000s      0.000w      1 calls
HF: Guess                           :      0.317u      0.000s      0.192w      1 calls
SAD Guess                           :      0.300u      0.000s      0.182w      1 calls
HF: Form G                          :      0.000u      0.000s      0.002w      6 calls
JK: D                               :      0.000u      0.000s      0.000w      6 calls
JK: USO2AO                          :      0.000u      0.000s      0.000w      6 calls
JK: JK                              :      0.000u      0.000s      0.001w      6 calls
DFH: compute_JK()                   :      0.000u      0.000s      0.001w      6 calls
DFH: Grabbing AOs                   :      0.000u      0.000s      0.000w      6 calls
DFH: compute_J                      :      0.000u      0.000s      0.000w      6 calls
DFH: compute_K                      :      0.000u      0.000s      0.001w      6 calls
JK: AO2USO                          :      0.000u      0.000s      0.000w      6 calls
HF: Form F                          :      0.000u      0.000s      0.000w      6 calls
HF: Form D                          :      0.000u      0.000s      0.000w      6 calls
HF: DIIS                            :      0.000u      0.000s      0.005w      5 calls
DIISManager::add_entry              :      0.000u      0.000s      0.001w      5 calls
DIISManager::extrapolate            :      0.000u      0.000s      0.001w      5 calls
bMatrix setup                       :      0.000u      0.000s      0.000w      5 calls
bMatrix pseudoinverse               :      0.000u      0.000s      0.000w      5 calls
New vector                          :      0.000u      0.000s      0.000w      5 calls
HF: Form C                          :      0.000u      0.000s      0.000w      5 calls

--------------------------------------------------------------------------------------
DFH: sparsity prep                  :      0.033u      0.000s      0.016w      1 calls
DFH: initialize()                   :      0.117u      0.017s      0.074w      1 calls
| DFH: AO Construction              :      0.017u      0.000s      0.003w      1 calls
| DFH: AO-Met. Contraction          :      0.000u      0.000s      0.001w      1 calls
HF: Form core H                     :      0.000u      0.000s      0.001w      1 calls
HF: Form S/X                        :      0.000u      0.000s      0.000w      1 calls
HF: Guess                           :      0.317u      0.000s      0.192w      1 calls
| SAD Guess                         :      0.300u      0.000s      0.182w      1 calls
HF: Form G                          :      0.000u      0.000s      0.002w      6 calls
| JK: D                             :      0.000u      0.000s      0.000w      6 calls
| JK: USO2AO                        :      0.000u      0.000s      0.000w      6 calls
| JK: JK                            :      0.000u      0.000s      0.001w      6 calls
| | DFH: compute_JK()               :      0.000u      0.000s      0.001w      6 calls
| | | DFH: Grabbing AOs             :      0.000u      0.000s      0.000w      6 calls
| | | DFH: compute_J                :      0.000u      0.000s      0.000w      6 calls
| | | DFH: compute_K                :      0.000u      0.000s      0.001w      6 calls
| JK: AO2USO                        :      0.000u      0.000s      0.000w      6 calls
HF: Form F                          :      0.000u      0.000s      0.000w      6 calls
HF: Form D                          :      0.000u      0.000s      0.000w      6 calls
HF: DIIS                            :      0.000u      0.000s      0.005w      5 calls
| DIISManager::add_entry            :      0.000u      0.000s      0.001w      5 calls
| DIISManager::extrapolate          :      0.000u      0.000s      0.001w      5 calls
| | bMatrix setup                   :      0.000u      0.000s      0.000w      5 calls
| | bMatrix pseudoinverse           :      0.000u      0.000s      0.000w      5 calls
| | New vector                      :      0.000u      0.000s      0.000w      5 calls
HF: Form C                          :      0.000u      0.000s      0.000w      5 calls

**************************************************************************************

Host: robert-ThinkPad-E475

Timers On : Tue Jun 16 00:50:03 2020
Timers Off: Tue Jun 16 00:50:32 2020

Wall Time:       29.28 seconds

                                                       Time (seconds)
Module                                       User      System        Wall        Calls
DFH: sparsity prep                  :      0.017u      0.000s      0.017w      1 calls
DFH: initialize()                   :      0.117u      0.000s      0.073w      1 calls
DFH: AO Construction                :      0.000u      0.000s      0.003w      1 calls
DFH: AO-Met. Contraction            :      0.000u      0.000s      0.000w      1 calls
HF: Form core H                     :      0.000u      0.000s      0.001w      1 calls
HF: Form S/X                        :      0.000u      0.000s      0.000w      1 calls
HF: Guess                           :      0.317u      0.000s      0.188w      1 calls
SAD Guess                           :      0.300u      0.000s      0.178w      1 calls
HF: Form G                          :      0.017u      0.000s      0.002w      6 calls
JK: D                               :      0.000u      0.000s      0.000w      6 calls
JK: USO2AO                          :      0.000u      0.000s      0.000w      6 calls
JK: JK                              :      0.017u      0.000s      0.001w      6 calls
DFH: compute_JK()                   :      0.017u      0.000s      0.001w      6 calls
DFH: Grabbing AOs                   :      0.000u      0.000s      0.000w      6 calls
DFH: compute_J                      :      0.000u      0.000s      0.000w      6 calls
DFH: compute_K                      :      0.000u      0.000s      0.001w      6 calls
JK: AO2USO                          :      0.000u      0.000s      0.000w      6 calls
HF: Form F                          :      0.000u      0.000s      0.000w      6 calls
HF: Form D                          :      0.000u      0.000s      0.000w      6 calls
HF: DIIS                            :      0.000u      0.000s      0.006w      5 calls
DIISManager::add_entry              :      0.000u      0.000s      0.001w      5 calls
DIISManager::extrapolate            :      0.000u      0.000s      0.001w      5 calls
bMatrix setup                       :      0.000u      0.000s      0.000w      5 calls
bMatrix pseudoinverse               :      0.000u      0.000s      0.000w      5 calls
New vector                          :      0.000u      0.000s      0.000w      5 calls
HF: Form C                          :      0.000u      0.000s      0.000w      5 calls

--------------------------------------------------------------------------------------
DFH: sparsity prep                  :      0.017u      0.000s      0.017w      1 calls
DFH: initialize()                   :      0.117u      0.000s      0.073w      1 calls
| DFH: AO Construction              :      0.000u      0.000s      0.003w      1 calls
| DFH: AO-Met. Contraction          :      0.000u      0.000s      0.000w      1 calls
HF: Form core H                     :      0.000u      0.000s      0.001w      1 calls
HF: Form S/X                        :      0.000u      0.000s      0.000w      1 calls
HF: Guess                           :      0.317u      0.000s      0.188w      1 calls
| SAD Guess                         :      0.300u      0.000s      0.178w      1 calls
HF: Form G                          :      0.017u      0.000s      0.002w      6 calls
| JK: D                             :      0.000u      0.000s      0.000w      6 calls
| JK: USO2AO                        :      0.000u      0.000s      0.000w      6 calls
| JK: JK                            :      0.017u      0.000s      0.001w      6 calls
| | DFH: compute_JK()               :      0.017u      0.000s      0.001w      6 calls
| | | DFH: Grabbing AOs             :      0.000u      0.000s      0.000w      6 calls
| | | DFH: compute_J                :      0.000u      0.000s      0.000w      6 calls
| | | DFH: compute_K                :      0.000u      0.000s      0.001w      6 calls
| JK: AO2USO                        :      0.000u      0.000s      0.000w      6 calls
HF: Form F                          :      0.000u      0.000s      0.000w      6 calls
HF: Form D                          :      0.000u      0.000s      0.000w      6 calls
HF: DIIS                            :      0.000u      0.000s      0.006w      5 calls
| DIISManager::add_entry            :      0.000u      0.000s      0.001w      5 calls
| DIISManager::extrapolate          :      0.000u      0.000s      0.001w      5 calls
| | bMatrix setup                   :      0.000u      0.000s      0.000w      5 calls
| | bMatrix pseudoinverse           :      0.000u      0.000s      0.000w      5 calls
| | New vector                      :      0.000u      0.000s      0.000w      5 calls
HF: Form C                          :      0.000u      0.000s      0.000w      5 calls

**************************************************************************************

Host: robert-ThinkPad-E475

Timers On : Tue Jun 16 00:50:42 2020
Timers Off: Tue Jun 16 00:51:25 2020

Wall Time:       43.04 seconds

                                                       Time (seconds)
Module                                       User      System        Wall        Calls
DFH: sparsity prep                  :      0.033u      0.000s      0.017w      1 calls
DFH: initialize()                   :      0.100u      0.000s      0.070w      1 calls
DFH: AO Construction                :      0.000u      0.000s      0.003w      1 calls
DFH: AO-Met. Contraction            :      0.000u      0.000s      0.001w      1 calls
HF: Form core H                     :      0.000u      0.000s      0.001w      1 calls
HF: Form S/X                        :      0.000u      0.000s      0.000w      1 calls
HF: Guess                           :      0.317u      0.000s      0.187w      1 calls
SAD Guess                           :      0.300u      0.000s      0.177w      1 calls
HF: Form G                          :      0.000u      0.000s      0.002w      6 calls
JK: D                               :      0.000u      0.000s      0.000w      6 calls
JK: USO2AO                          :      0.000u      0.000s      0.000w      6 calls
JK: JK                              :      0.000u      0.000s      0.001w      6 calls
DFH: compute_JK()                   :      0.000u      0.000s      0.001w      6 calls
DFH: Grabbing AOs                   :      0.000u      0.000s      0.000w      6 calls
DFH: compute_J                      :      0.000u      0.000s      0.000w      6 calls
DFH: compute_K                      :      0.000u      0.000s      0.001w      6 calls
JK: AO2USO                          :      0.000u      0.000s      0.000w      6 calls
HF: Form F                          :      0.000u      0.000s      0.000w      6 calls
HF: Form D                          :      0.000u      0.000s      0.000w      6 calls
HF: DIIS                            :      0.000u      0.000s      0.006w      5 calls
DIISManager::add_entry              :      0.000u      0.000s      0.001w      5 calls
DIISManager::extrapolate            :      0.000u      0.000s      0.001w      5 calls
bMatrix setup                       :      0.000u      0.000s      0.000w      5 calls
bMatrix pseudoinverse               :      0.000u      0.000s      0.000w      5 calls
New vector                          :      0.000u      0.000s      0.000w      5 calls
HF: Form C                          :      0.000u      0.000s      0.000w      5 calls

--------------------------------------------------------------------------------------
DFH: sparsity prep                  :      0.033u      0.000s      0.017w      1 calls
DFH: initialize()                   :      0.100u      0.000s      0.070w      1 calls
| DFH: AO Construction              :      0.000u      0.000s      0.003w      1 calls
| DFH: AO-Met. Contraction          :      0.000u      0.000s      0.001w      1 calls
HF: Form core H                     :      0.000u      0.000s      0.001w      1 calls
HF: Form S/X                        :      0.000u      0.000s      0.000w      1 calls
HF: Guess                           :      0.317u      0.000s      0.187w      1 calls
| SAD Guess                         :      0.300u      0.000s      0.177w      1 calls
HF: Form G                          :      0.000u      0.000s      0.002w      6 calls
| JK: D                             :      0.000u      0.000s      0.000w      6 calls
| JK: USO2AO                        :      0.000u      0.000s      0.000w      6 calls
| JK: JK                            :      0.000u      0.000s      0.001w      6 calls
| | DFH: compute_JK()               :      0.000u      0.000s      0.001w      6 calls
| | | DFH: Grabbing AOs             :      0.000u      0.000s      0.000w      6 calls
| | | DFH: compute_J                :      0.000u      0.000s      0.000w      6 calls
| | | DFH: compute_K                :      0.000u      0.000s      0.001w      6 calls
| JK: AO2USO                        :      0.000u      0.000s      0.000w      6 calls
HF: Form F                          :      0.000u      0.000s      0.000w      6 calls
HF: Form D                          :      0.000u      0.000s      0.000w      6 calls
HF: DIIS                            :      0.000u      0.000s      0.006w      5 calls
| DIISManager::add_entry            :      0.000u      0.000s      0.001w      5 calls
| DIISManager::extrapolate          :      0.000u      0.000s      0.001w      5 calls
| | bMatrix setup                   :      0.000u      0.000s      0.000w      5 calls
| | bMatrix pseudoinverse           :      0.000u      0.000s      0.000w      5 calls
| | New vector                      :      0.000u      0.000s      0.000w      5 calls
HF: Form C                          :      0.000u      0.000s      0.000w      5 calls

**************************************************************************************

Host: robert-ThinkPad-E475

Timers On : Tue Jun 16 00:55:15 2020
Timers Off: Tue Jun 16 01:04:30 2020

Wall Time:      554.65 seconds

                                                       Time (seconds)
Module                                       User      System        Wall        Calls
DFH: sparsity prep                  :      0.550u      0.017s      0.337w     18 calls
DFH: initialize()                   :      2.417u      0.050s      1.484w     18 calls
DFH: AO Construction                :      0.067u      0.000s      0.064w     18 calls
DFH: AO-Met. Contraction            :      0.017u      0.000s      0.012w     18 calls
HF: Form core H                     :      0.050u      0.017s      0.025w     18 calls
HF: Form S/X                        :      0.017u      0.000s      0.005w     18 calls
HF: Guess                           :      5.600u      0.017s      3.387w     18 calls
SAD Guess                           :      5.233u      0.017s      3.154w     18 calls
HF: Form G                          :      0.083u      0.000s      0.050w    144 calls
JK: D                               :      0.000u      0.000s      0.003w    144 calls
JK: USO2AO                          :      0.000u      0.000s      0.006w    144 calls
JK: JK                              :      0.067u      0.000s      0.030w    144 calls
DFH: compute_JK()                   :      0.067u      0.000s      0.029w    144 calls
DFH: Grabbing AOs                   :      0.000u      0.000s      0.000w    144 calls
DFH: compute_J                      :      0.017u      0.000s      0.006w    144 calls
DFH: compute_K                      :      0.050u      0.000s      0.015w    144 calls
JK: AO2USO                          :      0.000u      0.000s      0.002w    144 calls
HF: Form F                          :      0.000u      0.000s      0.004w    144 calls
HF: Form D                          :      0.000u      0.000s      0.002w    144 calls
HF: DIIS                            :      0.233u      0.017s      0.168w    126 calls
DIISManager::add_entry              :      0.033u      0.000s      0.020w    126 calls
DIISManager::extrapolate            :      0.017u      0.000s      0.023w    126 calls
bMatrix setup                       :      0.000u      0.000s      0.005w    126 calls
bMatrix pseudoinverse               :      0.017u      0.000s      0.011w    126 calls
New vector                          :      0.000u      0.000s      0.004w    126 calls
HF: Form C                          :      0.000u      0.000s      0.010w    126 calls
CIWave: CIvect write                :      0.000u      0.017s      0.006w    238 calls
CIWave: CIvect read                 :      0.017u      0.000s      0.007w    834 calls
CIWave: s2                          :      0.000u      0.017s      0.005w     64 calls
CIWave: s3                          :      0.067u      0.000s      0.017w    128 calls
ccenergy                            :      2.017u      3.700s      3.539w      9 calls
F build                             :      0.150u      0.050s      0.086w    110 calls
Wmbej build                         :      0.133u      0.017s      0.096w    110 calls
C->Wmbej                            :      0.017u      0.000s      0.009w    110 calls
F->Wmbej                            :      0.083u      0.017s      0.031w    110 calls
E->Wmbej                            :      0.017u      0.000s      0.017w    110 calls
X->Wmbej                            :      0.017u      0.000s      0.032w    110 calls
Z                                   :      0.000u      0.000s      0.009w    110 calls
T2 Build                            :      0.300u      0.150s      0.200w    110 calls
BT2                                 :      0.067u      0.033s      0.037w    110 calls
ABCD:new                            :      0.067u      0.033s      0.036w    110 calls
ABCD:S                              :      0.000u      0.017s      0.005w    110 calls
ABCD:A                              :      0.000u      0.000s      0.005w    110 calls
ABCD:axpy                           :      0.050u      0.000s      0.008w    110 calls
FT2                                 :      0.000u      0.000s      0.012w    110 calls
WmbejT2                             :      0.067u      0.000s      0.032w    110 calls
CT2                                 :      0.083u      0.067s      0.072w    110 calls

--------------------------------------------------------------------------------------
DFH: sparsity prep                  :      0.550u      0.017s      0.337w     18 calls
DFH: initialize()                   :      2.417u      0.050s      1.484w     18 calls
| DFH: AO Construction              :      0.067u      0.000s      0.064w     18 calls
| DFH: AO-Met. Contraction          :      0.017u      0.000s      0.012w     18 calls
HF: Form core H                     :      0.050u      0.017s      0.025w     18 calls
HF: Form S/X                        :      0.017u      0.000s      0.005w     18 calls
HF: Guess                           :      5.600u      0.017s      3.387w     18 calls
| SAD Guess                         :      5.233u      0.017s      3.154w     18 calls
HF: Form G                          :      0.083u      0.000s      0.050w    144 calls
| JK: D                             :      0.000u      0.000s      0.003w    144 calls
| JK: USO2AO                        :      0.000u      0.000s      0.006w    144 calls
| JK: JK                            :      0.067u      0.000s      0.030w    144 calls
| | DFH: compute_JK()               :      0.067u      0.000s      0.029w    144 calls
| | | DFH: Grabbing AOs             :      0.000u      0.000s      0.000w    144 calls
| | | DFH: compute_J                :      0.017u      0.000s      0.006w    144 calls
| | | DFH: compute_K                :      0.050u      0.000s      0.015w    144 calls
| JK: AO2USO                        :      0.000u      0.000s      0.002w    144 calls
HF: Form F                          :      0.000u      0.000s      0.004w    144 calls
HF: Form D                          :      0.000u      0.000s      0.002w    144 calls
HF: DIIS                            :      0.233u      0.017s      0.168w    126 calls
| DIISManager::add_entry            :      0.033u      0.000s      0.020w    126 calls
| DIISManager::extrapolate          :      0.017u      0.000s      0.023w    126 calls
| | bMatrix setup                   :      0.000u      0.000s      0.005w    126 calls
| | bMatrix pseudoinverse           :      0.017u      0.000s      0.011w    126 calls
| | New vector                      :      0.000u      0.000s      0.004w    126 calls
HF: Form C                          :      0.000u      0.000s      0.010w    126 calls
CIWave: CIvect write                :      0.000u      0.017s      0.006w    238 calls
CIWave: CIvect read                 :      0.017u      0.000s      0.007w    834 calls
CIWave: s2                          :      0.000u      0.017s      0.005w     64 calls
CIWave: s3                          :      0.067u      0.000s      0.017w    128 calls
ccenergy                            :      2.017u      3.700s      3.539w      9 calls
| F build                           :      0.150u      0.050s      0.086w    110 calls
| Wmbej build                       :      0.133u      0.017s      0.096w    110 calls
| | C->Wmbej                        :      0.017u      0.000s      0.009w    110 calls
| | F->Wmbej                        :      0.083u      0.017s      0.031w    110 calls
| | E->Wmbej                        :      0.017u      0.000s      0.017w    110 calls
| | X->Wmbej                        :      0.017u      0.000s      0.032w    110 calls
| Z                                 :      0.000u      0.000s      0.009w    110 calls
| T2 Build                          :      0.300u      0.150s      0.200w    110 calls
| | BT2                             :      0.067u      0.033s      0.037w    110 calls
| | | ABCD:new                      :      0.067u      0.033s      0.036w    110 calls
| | | | ABCD:S                      :      0.000u      0.017s      0.005w    110 calls
| | | | ABCD:A                      :      0.000u      0.000s      0.005w    110 calls
| | | | ABCD:axpy                   :      0.050u      0.000s      0.008w    110 calls
| | FT2                             :      0.000u      0.000s      0.012w    110 calls
| | WmbejT2                         :      0.067u      0.000s      0.032w    110 calls
| | CT2                             :      0.083u      0.067s      0.072w    110 calls

**************************************************************************************

Host: robert-ThinkPad-E475

Timers On : Tue Jun 16 01:19:08 2020
Timers Off: Tue Jun 16 01:22:10 2020

Wall Time:      181.97 seconds

                                                       Time (seconds)
Module                                       User      System        Wall        Calls
DFH: sparsity prep                  :      0.983u      0.000s      0.606w     30 calls
DFH: initialize()                   :      3.883u      0.100s      2.386w     30 calls
DFH: AO Construction                :      0.250u      0.000s      0.103w     30 calls
DFH: AO-Met. Contraction            :      0.067u      0.000s      0.019w     30 calls
HF: Form core H                     :      0.017u      0.050s      0.041w     30 calls
HF: Form S/X                        :      0.000u      0.000s      0.008w     30 calls
HF: Guess                           :      9.933u      0.083s      6.088w     30 calls
SAD Guess                           :      9.383u      0.067s      5.715w     30 calls
HF: Form G                          :      0.150u      0.000s      0.099w    298 calls
JK: D                               :      0.000u      0.000s      0.005w    298 calls
JK: USO2AO                          :      0.000u      0.000s      0.012w    298 calls
JK: JK                              :      0.083u      0.000s      0.061w    298 calls
DFH: compute_JK()                   :      0.083u      0.000s      0.058w    298 calls
DFH: Grabbing AOs                   :      0.000u      0.000s      0.001w    298 calls
DFH: compute_J                      :      0.017u      0.000s      0.012w    298 calls
DFH: compute_K                      :      0.050u      0.000s      0.030w    298 calls
JK: AO2USO                          :      0.033u      0.000s      0.004w    298 calls
HF: Form F                          :      0.017u      0.000s      0.007w    298 calls
HF: Form D                          :      0.000u      0.000s      0.003w    298 calls
HF: DIIS                            :      0.533u      0.083s      0.333w    268 calls
DIISManager::add_entry              :      0.050u      0.000s      0.037w    268 calls
DIISManager::extrapolate            :      0.117u      0.017s      0.050w    268 calls
bMatrix setup                       :      0.050u      0.000s      0.013w    268 calls
bMatrix pseudoinverse               :      0.033u      0.017s      0.025w    268 calls
New vector                          :      0.017u      0.000s      0.008w    268 calls
HF: Form C                          :      0.033u      0.000s      0.018w    268 calls
CIWave: CIvect write                :      0.033u      0.000s      0.010w    386 calls
CIWave: CIvect read                 :      0.000u      0.000s      0.012w   1338 calls
CIWave: s2                          :      0.000u      0.000s      0.008w    104 calls
CIWave: s3                          :      0.067u      0.000s      0.029w    208 calls
ccenergy                            :      2.417u      5.183s      4.793w     14 calls
F build                             :      0.233u      0.050s      0.108w    150 calls
Wmbej build                         :      0.133u      0.067s      0.118w    150 calls
C->Wmbej                            :      0.000u      0.017s      0.011w    150 calls
F->Wmbej                            :      0.033u      0.017s      0.038w    150 calls
E->Wmbej                            :      0.017u      0.017s      0.021w    150 calls
X->Wmbej                            :      0.083u      0.017s      0.039w    150 calls
Z                                   :      0.000u      0.000s      0.010w    150 calls
T2 Build                            :      0.317u      0.150s      0.241w    150 calls
BT2                                 :      0.100u      0.050s      0.044w    150 calls
ABCD:new                            :      0.100u      0.050s      0.043w    150 calls
ABCD:S                              :      0.017u      0.000s      0.006w    150 calls
ABCD:A                              :      0.017u      0.000s      0.005w    150 calls
ABCD:axpy                           :      0.017u      0.000s      0.010w    150 calls
FT2                                 :      0.033u      0.000s      0.014w    150 calls
WmbejT2                             :      0.017u      0.033s      0.040w    150 calls
CT2                                 :      0.133u      0.050s      0.087w    150 calls

--------------------------------------------------------------------------------------
DFH: sparsity prep                  :      0.983u      0.000s      0.606w     30 calls
DFH: initialize()                   :      3.883u      0.100s      2.386w     30 calls
| DFH: AO Construction              :      0.250u      0.000s      0.103w     30 calls
| DFH: AO-Met. Contraction          :      0.067u      0.000s      0.019w     30 calls
HF: Form core H                     :      0.017u      0.050s      0.041w     30 calls
HF: Form S/X                        :      0.000u      0.000s      0.008w     30 calls
HF: Guess                           :      9.933u      0.083s      6.088w     30 calls
| SAD Guess                         :      9.383u      0.067s      5.715w     30 calls
HF: Form G                          :      0.150u      0.000s      0.099w    298 calls
| JK: D                             :      0.000u      0.000s      0.005w    298 calls
| JK: USO2AO                        :      0.000u      0.000s      0.012w    298 calls
| JK: JK                            :      0.083u      0.000s      0.061w    298 calls
| | DFH: compute_JK()               :      0.083u      0.000s      0.058w    298 calls
| | | DFH: Grabbing AOs             :      0.000u      0.000s      0.001w    298 calls
| | | DFH: compute_J                :      0.017u      0.000s      0.012w    298 calls
| | | DFH: compute_K                :      0.050u      0.000s      0.030w    298 calls
| JK: AO2USO                        :      0.033u      0.000s      0.004w    298 calls
HF: Form F                          :      0.017u      0.000s      0.007w    298 calls
HF: Form D                          :      0.000u      0.000s      0.003w    298 calls
HF: DIIS                            :      0.533u      0.083s      0.333w    268 calls
| DIISManager::add_entry            :      0.050u      0.000s      0.037w    268 calls
| DIISManager::extrapolate          :      0.117u      0.017s      0.050w    268 calls
| | bMatrix setup                   :      0.050u      0.000s      0.013w    268 calls
| | bMatrix pseudoinverse           :      0.033u      0.017s      0.025w    268 calls
| | New vector                      :      0.017u      0.000s      0.008w    268 calls
HF: Form C                          :      0.033u      0.000s      0.018w    268 calls
CIWave: CIvect write                :      0.033u      0.000s      0.010w    386 calls
CIWave: CIvect read                 :      0.000u      0.000s      0.012w   1338 calls
CIWave: s2                          :      0.000u      0.000s      0.008w    104 calls
CIWave: s3                          :      0.067u      0.000s      0.029w    208 calls
ccenergy                            :      2.417u      5.183s      4.793w     14 calls
| F build                           :      0.233u      0.050s      0.108w    150 calls
| Wmbej build                       :      0.133u      0.067s      0.118w    150 calls
| | C->Wmbej                        :      0.000u      0.017s      0.011w    150 calls
| | F->Wmbej                        :      0.033u      0.017s      0.038w    150 calls
| | E->Wmbej                        :      0.017u      0.017s      0.021w    150 calls
| | X->Wmbej                        :      0.083u      0.017s      0.039w    150 calls
| Z                                 :      0.000u      0.000s      0.010w    150 calls
| T2 Build                          :      0.317u      0.150s      0.241w    150 calls
| | BT2                             :      0.100u      0.050s      0.044w    150 calls
| | | ABCD:new                      :      0.100u      0.050s      0.043w    150 calls
| | | | ABCD:S                      :      0.017u      0.000s      0.006w    150 calls
| | | | ABCD:A                      :      0.017u      0.000s      0.005w    150 calls
| | | | ABCD:axpy                   :      0.017u      0.000s      0.010w    150 calls
| | FT2                             :      0.033u      0.000s      0.014w    150 calls
| | WmbejT2                         :      0.017u      0.033s      0.040w    150 calls
| | CT2                             :      0.133u      0.050s      0.087w    150 calls

**************************************************************************************

Host: robert-ThinkPad-E475

Timers On : Tue Jun 16 21:56:20 2020
Timers Off: Tue Jun 16 22:02:24 2020

Wall Time:      364.03 seconds

                                                       Time (seconds)
Module                                       User      System        Wall        Calls

--------------------------------------------------------------------------------------

**************************************************************************************

Host: robert-ThinkPad-E475

Timers On : Tue Jun 16 21:11:21 2020
Timers Off: Tue Jun 16 22:13:34 2020

Wall Time:     3733.31 seconds

                                                       Time (seconds)
Module                                       User      System        Wall        Calls
DFH: sparsity prep                  :      1.033u      0.000s      0.658w     18 calls
DFH: initialize()                   :      3.800u      0.083s      2.446w     18 calls
DFH: AO Construction                :      0.167u      0.033s      0.128w     18 calls
DFH: AO-Met. Contraction            :      0.083u      0.000s      0.023w     18 calls
HF: Form core H                     :      0.033u      0.017s      0.052w     18 calls
HF: Form S/X                        :      0.000u      0.000s      0.008w     18 calls
HF: Guess                           :     10.450u      0.050s      6.497w     18 calls
SAD Guess                           :      9.933u      0.050s      6.127w     18 calls
HF: Form G                          :      0.183u      0.017s      0.105w    144 calls
JK: D                               :      0.000u      0.000s      0.006w    144 calls
JK: USO2AO                          :      0.067u      0.000s      0.012w    144 calls
JK: JK                              :      0.083u      0.000s      0.053w    144 calls
DFH: compute_JK()                   :      0.083u      0.000s      0.051w    144 calls
DFH: Grabbing AOs                   :      0.017u      0.000s      0.001w    144 calls
DFH: compute_J                      :      0.017u      0.000s      0.010w    144 calls
DFH: compute_K                      :      0.033u      0.000s      0.026w    144 calls
JK: AO2USO                          :      0.017u      0.000s      0.004w    144 calls
HF: Form F                          :      0.017u      0.000s      0.008w    144 calls
HF: Form D                          :      0.000u      0.000s      0.003w    144 calls
HF: DIIS                            :      0.467u      0.000s      0.339w    126 calls
DIISManager::add_entry              :      0.083u      0.000s      0.038w    126 calls
DIISManager::extrapolate            :      0.067u      0.000s      0.050w    126 calls
bMatrix setup                       :      0.017u      0.000s      0.011w    126 calls
bMatrix pseudoinverse               :      0.033u      0.000s      0.028w    126 calls
New vector                          :      0.000u      0.000s      0.007w    126 calls
HF: Form C                          :      0.050u      0.000s      0.017w    126 calls
CIWave: CIvect write                :      0.017u      0.017s      0.015w    238 calls
CIWave: CIvect read                 :      0.017u      0.000s      0.014w    834 calls
CIWave: s2                          :      0.017u      0.017s      0.009w     64 calls
[...]
DFH: Grabbing AOs                   :      0.017u      0.000s      0.001w    333 calls
DFH: compute_J                      :      0.050u      0.000s      0.011w    333 calls
DFH: compute_K                      :      0.000u      0.000s      0.013w    333 calls
JK: AO2USO                          :      0.017u      0.000s      0.005w    333 calls
HF: Form F                          :      0.033u      0.000s      0.017w    333 calls
HF: Form D                          :      0.000u      0.000s      0.005w    333 calls
HF: DIIS                            :      0.833u      0.133s      0.674w    222 calls
DIISManager::add_entry              :      0.083u      0.083s      0.129w    222 calls
DIISManager::extrapolate            :      0.050u      0.000s      0.060w    222 calls
bMatrix setup                       :      0.000u      0.000s      0.009w    222 calls
bMatrix pseudoinverse               :      0.033u      0.000s      0.033w    222 calls
New vector                          :      0.017u      0.000s      0.010w    222 calls
HF: Form C                          :      0.050u      0.000s      0.019w    222 calls

--------------------------------------------------------------------------------------
DFH: sparsity prep                  :      5.150u      0.000s      3.170w    111 calls
DFH: initialize()                   :     16.300u      0.250s     10.275w    111 calls
| DFH: AO Construction              :      0.050u      0.000s      0.035w    111 calls
| DFH: AO-Met. Contraction          :      0.017u      0.000s      0.006w    111 calls
HF: Form core H                     :      0.217u      0.267s      0.271w    111 calls
HF: Form S/X                        :      0.017u      0.067s      0.032w    111 calls
HF: Guess                           :     32.783u      0.383s     20.524w    111 calls
| SAD Guess                         :     29.467u      0.183s     18.297w    111 calls
HF: Form G                          :      0.283u      0.000s      0.133w    333 calls
| JK: D                             :      0.000u      0.000s      0.013w    333 calls
| JK: USO2AO                        :      0.067u      0.000s      0.026w    333 calls
| JK: JK                            :      0.117u      0.000s      0.053w    333 calls
| | DFH: compute_JK()               :      0.117u      0.000s      0.047w    333 calls
| | | DFH: Grabbing AOs             :      0.017u      0.000s      0.001w    333 calls
| | | DFH: compute_J                :      0.050u      0.000s      0.011w    333 calls
| | | DFH: compute_K                :      0.000u      0.000s      0.013w    333 calls
| JK: AO2USO                        :      0.017u      0.000s      0.005w    333 calls
HF: Form F                          :      0.033u      0.000s      0.017w    333 calls
HF: Form D                          :      0.000u      0.000s      0.005w    333 calls
HF: DIIS                            :      0.833u      0.133s      0.674w    222 calls
| DIISManager::add_entry            :      0.083u      0.083s      0.129w    222 calls
| DIISManager::extrapolate          :      0.050u      0.000s      0.060w    222 calls
| | bMatrix setup                   :      0.000u      0.000s      0.009w    222 calls
| | bMatrix pseudoinverse           :      0.033u      0.000s      0.033w    222 calls
| | New vector                      :      0.017u      0.000s      0.010w    222 calls
HF: Form C                          :      0.050u      0.000s      0.019w    222 calls

**************************************************************************************

Host: robert-ThinkPad-E475

Timers On : Tue Jun 16 22:13:59 2020
Timers Off: Tue Jun 16 22:14:48 2020

Wall Time:       49.00 seconds

                                                       Time (seconds)
Module                                       User      System        Wall        Calls
DFH: sparsity prep                  :      1.150u      0.000s      0.675w     24 calls
DFH: initialize()                   :      3.500u      0.067s      2.274w     24 calls
DFH: AO Construction                :      0.033u      0.000s      0.010w     24 calls
DFH: AO-Met. Contraction            :      0.000u      0.000s      0.002w     24 calls
HF: Form core H                     :      0.067u      0.050s      0.064w     24 calls
HF: Form S/X                        :      0.017u      0.000s      0.008w     24 calls
HF: Guess                           :      7.600u      0.117s      4.739w     24 calls
SAD Guess                           :      6.733u      0.100s      4.184w     24 calls
HF: Form G                          :      0.050u      0.017s      0.029w     72 calls
JK: D                               :      0.000u      0.000s      0.003w     72 calls
JK: USO2AO                          :      0.033u      0.000s      0.006w     72 calls
JK: JK                              :      0.000u      0.017s      0.011w     72 calls
DFH: compute_JK()                   :      0.000u      0.017s      0.010w     72 calls
DFH: Grabbing AOs                   :      0.000u      0.000s      0.000w     72 calls
DFH: compute_J                      :      0.000u      0.000s      0.002w     72 calls
DFH: compute_K                      :      0.000u      0.000s      0.003w     72 calls
JK: AO2USO                          :      0.000u      0.000s      0.001w     72 calls
HF: Form F                          :      0.017u      0.000s      0.004w     72 calls
HF: Form D                          :      0.000u      0.000s      0.001w     72 calls
HF: DIIS                            :      0.183u      0.033s      0.145w     48 calls
DIISManager::add_entry              :      0.017u      0.017s      0.027w     48 calls
DIISManager::extrapolate            :      0.033u      0.000s      0.013w     48 calls
bMatrix setup                       :      0.000u      0.000s      0.002w     48 calls
bMatrix pseudoinverse               :      0.017u      0.000s      0.007w     48 calls
New vector                          :      0.017u      0.000s      0.002w     48 calls
HF: Form C                          :      0.000u      0.000s      0.004w     48 calls

--------------------------------------------------------------------------------------
DFH: sparsity prep                  :      1.150u      0.000s      0.675w     24 calls
DFH: initialize()                   :      3.500u      0.067s      2.274w     24 calls
| DFH: AO Construction              :      0.033u      0.000s      0.010w     24 calls
| DFH: AO-Met. Contraction          :      0.000u      0.000s      0.002w     24 calls
HF: Form core H                     :      0.067u      0.050s      0.064w     24 calls
HF: Form S/X                        :      0.017u      0.000s      0.008w     24 calls
HF: Guess                           :      7.600u      0.117s      4.739w     24 calls
| SAD Guess                         :      6.733u      0.100s      4.184w     24 calls
HF: Form G                          :      0.050u      0.017s      0.029w     72 calls
| JK: D                             :      0.000u      0.000s      0.003w     72 calls
| JK: USO2AO                        :      0.033u      0.000s      0.006w     72 calls
| JK: JK                            :      0.000u      0.017s      0.011w     72 calls
| | DFH: compute_JK()               :      0.000u      0.017s      0.010w     72 calls
| | | DFH: Grabbing AOs             :      0.000u      0.000s      0.000w     72 calls
| | | DFH: compute_J                :      0.000u      0.000s      0.002w     72 calls
| | | DFH: compute_K                :      0.000u      0.000s      0.003w     72 calls
| JK: AO2USO                        :      0.000u      0.000s      0.001w     72 calls
HF: Form F                          :      0.017u      0.000s      0.004w     72 calls
HF: Form D                          :      0.000u      0.000s      0.001w     72 calls
HF: DIIS                            :      0.183u      0.033s      0.145w     48 calls
| DIISManager::add_entry            :      0.017u      0.017s      0.027w     48 calls
| DIISManager::extrapolate          :      0.033u      0.000s      0.013w     48 calls
| | bMatrix setup                   :      0.000u      0.000s      0.002w     48 calls
| | bMatrix pseudoinverse           :      0.017u      0.000s      0.007w     48 calls
| | New vector                      :      0.017u      0.000s      0.002w     48 calls
HF: Form C                          :      0.000u      0.000s      0.004w     48 calls

**************************************************************************************

Host: robert-ThinkPad-E475

Timers On : Tue Jun 16 22:37:03 2020
Timers Off: Tue Jun 16 22:37:14 2020

Wall Time:       10.59 seconds

                                                       Time (seconds)
Module                                       User      System        Wall        Calls
DFH: sparsity prep                  :      0.283u      0.000s      0.157w     10 calls
DFH: initialize()                   :      1.017u      0.000s      0.620w     10 calls
DFH: AO Construction                :      0.000u      0.000s      0.002w     10 calls
DFH: AO-Met. Contraction            :      0.000u      0.000s      0.000w     10 calls
HF: Form core H                     :      0.017u      0.000s      0.014w     10 calls
HF: Form S/X                        :      0.000u      0.000s      0.002w     10 calls
HF: Guess                           :      1.633u      0.050s      1.001w     10 calls
SAD Guess                           :      1.450u      0.017s      0.887w     10 calls
HF: Form G                          :      0.000u      0.000s      0.006w     30 calls
JK: D                               :      0.000u      0.000s      0.001w     30 calls
JK: USO2AO                          :      0.000u      0.000s      0.001w     30 calls
JK: JK                              :      0.000u      0.000s      0.002w     30 calls
DFH: compute_JK()                   :      0.000u      0.000s      0.002w     30 calls
DFH: Grabbing AOs                   :      0.000u      0.000s      0.000w     30 calls
DFH: compute_J                      :      0.000u      0.000s      0.000w     30 calls
DFH: compute_K                      :      0.000u      0.000s      0.001w     30 calls
JK: AO2USO                          :      0.000u      0.000s      0.000w     30 calls
HF: Form F                          :      0.000u      0.000s      0.001w     30 calls
HF: Form D                          :      0.000u      0.000s      0.000w     30 calls
HF: DIIS                            :      0.050u      0.000s      0.030w     20 calls
DIISManager::add_entry              :      0.000u      0.000s      0.006w     20 calls
DIISManager::extrapolate            :      0.000u      0.000s      0.003w     20 calls
bMatrix setup                       :      0.000u      0.000s      0.000w     20 calls
bMatrix pseudoinverse               :      0.000u      0.000s      0.001w     20 calls
New vector                          :      0.000u      0.000s      0.000w     20 calls
HF: Form C                          :      0.000u      0.000s      0.001w     20 calls
CIWave: CIvect write                :      0.000u      0.017s      0.006w    348 calls
CIWave: CIvect read                 :      0.017u      0.017s      0.019w   2974 calls
CIWave: s2                          :      0.000u      0.000s      0.000w     80 calls
CIWave: s3                          :      0.000u      0.000s      0.001w    160 calls

--------------------------------------------------------------------------------------
DFH: sparsity prep                  :      0.283u      0.000s      0.157w     10 calls
DFH: initialize()                   :      1.017u      0.000s      0.620w     10 calls
| DFH: AO Construction              :      0.000u      0.000s      0.002w     10 calls
| DFH: AO-Met. Contraction          :      0.000u      0.000s      0.000w     10 calls
HF: Form core H                     :      0.017u      0.000s      0.014w     10 calls
HF: Form S/X                        :      0.000u      0.000s      0.002w     10 calls
HF: Guess                           :      1.633u      0.050s      1.001w     10 calls
| SAD Guess                         :      1.450u      0.017s      0.887w     10 calls
HF: Form G                          :      0.000u      0.000s      0.006w     30 calls
| JK: D                             :      0.000u      0.000s      0.001w     30 calls
| JK: USO2AO                        :      0.000u      0.000s      0.001w     30 calls
| JK: JK                            :      0.000u      0.000s      0.002w     30 calls
| | DFH: compute_JK()               :      0.000u      0.000s      0.002w     30 calls
| | | DFH: Grabbing AOs             :      0.000u      0.000s      0.000w     30 calls
| | | DFH: compute_J                :      0.000u      0.000s      0.000w     30 calls
| | | DFH: compute_K                :      0.000u      0.000s      0.001w     30 calls
| JK: AO2USO                        :      0.000u      0.000s      0.000w     30 calls
HF: Form F                          :      0.000u      0.000s      0.001w     30 calls
HF: Form D                          :      0.000u      0.000s      0.000w     30 calls
HF: DIIS                            :      0.050u      0.000s      0.030w     20 calls
| DIISManager::add_entry            :      0.000u      0.000s      0.006w     20 calls
| DIISManager::extrapolate          :      0.000u      0.000s      0.003w     20 calls
| | bMatrix setup                   :      0.000u      0.000s      0.000w     20 calls
| | bMatrix pseudoinverse           :      0.000u      0.000s      0.001w     20 calls
| | New vector                      :      0.000u      0.000s      0.000w     20 calls
HF: Form C                          :      0.000u      0.000s      0.001w     20 calls
CIWave: CIvect write                :      0.000u      0.017s      0.006w    348 calls
CIWave: CIvect read                 :      0.017u      0.017s      0.019w   2974 calls
CIWave: s2                          :      0.000u      0.000s      0.000w     80 calls
CIWave: s3                          :      0.000u      0.000s      0.001w    160 calls

**************************************************************************************

Host: robert-ThinkPad-E475

Timers On : Tue Jun 16 22:56:47 2020
Timers Off: Tue Jun 16 22:56:58 2020

Wall Time:       10.50 seconds

                                                       Time (seconds)
Module                                       User      System        Wall        Calls
DFH: sparsity prep                  :      0.233u      0.000s      0.147w     10 calls
DFH: initialize()                   :      0.883u      0.017s      0.531w     10 calls
DFH: AO Construction                :      0.000u      0.000s      0.002w     10 calls
DFH: AO-Met. Contraction            :      0.000u      0.000s      0.000w     10 calls
HF: Form core H                     :      0.017u      0.017s      0.013w     10 calls
HF: Form S/X                        :      0.000u      0.000s      0.002w     10 calls
HF: Guess                           :      1.583u      0.017s      0.957w     10 calls
SAD Guess                           :      1.400u      0.017s      0.839w     10 calls
HF: Form G                          :      0.000u      0.000s      0.008w     30 calls
JK: D                               :      0.000u      0.000s      0.001w     30 calls
JK: USO2AO                          :      0.000u      0.000s      0.002w     30 calls
JK: JK                              :      0.000u      0.000s      0.003w     30 calls
DFH: compute_JK()                   :      0.000u      0.000s      0.003w     30 calls
DFH: Grabbing AOs                   :      0.000u      0.000s      0.000w     30 calls
DFH: compute_J                      :      0.000u      0.000s      0.001w     30 calls
DFH: compute_K                      :      0.000u      0.000s      0.001w     30 calls
JK: AO2USO                          :      0.000u      0.000s      0.000w     30 calls
HF: Form F                          :      0.000u      0.000s      0.001w     30 calls
HF: Form D                          :      0.000u      0.000s      0.000w     30 calls
HF: DIIS                            :      0.017u      0.033s      0.037w     20 calls
DIISManager::add_entry              :      0.017u      0.000s      0.008w     20 calls
DIISManager::extrapolate            :      0.000u      0.000s      0.003w     20 calls
bMatrix setup                       :      0.000u      0.000s      0.000w     20 calls
bMatrix pseudoinverse               :      0.000u      0.000s      0.002w     20 calls
New vector                          :      0.000u      0.000s      0.001w     20 calls
HF: Form C                          :      0.000u      0.000s      0.001w     20 calls
CIWave: CIvect write                :      0.000u      0.000s      0.007w    348 calls
CIWave: CIvect read                 :      0.017u      0.000s      0.020w   2974 calls
CIWave: s2                          :      0.000u      0.000s      0.000w     80 calls
CIWave: s3                          :      0.000u      0.000s      0.001w    160 calls

--------------------------------------------------------------------------------------
DFH: sparsity prep                  :      0.233u      0.000s      0.147w     10 calls
DFH: initialize()                   :      0.883u      0.017s      0.531w     10 calls
| DFH: AO Construction              :      0.000u      0.000s      0.002w     10 calls
| DFH: AO-Met. Contraction          :      0.000u      0.000s      0.000w     10 calls
HF: Form core H                     :      0.017u      0.017s      0.013w     10 calls
HF: Form S/X                        :      0.000u      0.000s      0.002w     10 calls
HF: Guess                           :      1.583u      0.017s      0.957w     10 calls
| SAD Guess                         :      1.400u      0.017s      0.839w     10 calls
HF: Form G                          :      0.000u      0.000s      0.008w     30 calls
| JK: D                             :      0.000u      0.000s      0.001w     30 calls
| JK: USO2AO                        :      0.000u      0.000s      0.002w     30 calls
| JK: JK                            :      0.000u      0.000s      0.003w     30 calls
| | DFH: compute_JK()               :      0.000u      0.000s      0.003w     30 calls
| | | DFH: Grabbing AOs             :      0.000u      0.000s      0.000w     30 calls
| | | DFH: compute_J                :      0.000u      0.000s      0.001w     30 calls
| | | DFH: compute_K                :      0.000u      0.000s      0.001w     30 calls
| JK: AO2USO                        :      0.000u      0.000s      0.000w     30 calls
HF: Form F                          :      0.000u      0.000s      0.001w     30 calls
HF: Form D                          :      0.000u      0.000s      0.000w     30 calls
HF: DIIS                            :      0.017u      0.033s      0.037w     20 calls
| DIISManager::add_entry            :      0.017u      0.000s      0.008w     20 calls
| DIISManager::extrapolate          :      0.000u      0.000s      0.003w     20 calls
| | bMatrix setup                   :      0.000u      0.000s      0.000w     20 calls
| | bMatrix pseudoinverse           :      0.000u      0.000s      0.002w     20 calls
| | New vector                      :      0.000u      0.000s      0.001w     20 calls
HF: Form C                          :      0.000u      0.000s      0.001w     20 calls
CIWave: CIvect write                :      0.000u      0.000s      0.007w    348 calls
CIWave: CIvect read                 :      0.017u      0.000s      0.020w   2974 calls
CIWave: s2                          :      0.000u      0.000s      0.000w     80 calls
CIWave: s3                          :      0.000u      0.000s      0.001w    160 calls

**************************************************************************************
